192
Lattice="21.955200000 0.000000000 0.000000000 4.479214559 14.592623140 0.000000000 2.569457538 -1.023176199 6.296358256" Properties=species:S:1:pos:R:3:forces:R:3 energy=0.0000 structure_id=1 pbc="T T T"
O            7.683905000         5.285519000         2.769997000                   0                   0                   0
O            6.564141000         1.637259000         2.770037000                   0                   0                   0
O            4.347352000        -0.011092000         1.808228000                   0                   0                   0
O            2.300196000         4.180140000         0.624982000                   0                   0                   0
O            4.522410000         5.840730000         1.585472000                   0                   0                   0
O            5.467464000         3.636807000         1.809873000                   0                   0                   0
O            3.403043000         2.191846000         1.587782000                   0                   0                   0
O            1.180934000         0.532342000         0.624347000                   0                   0                   0
Ti           2.508367000         0.506791000         1.959583000                   0                   0                   0
Ti           6.355958000         5.318269000         1.436834000                   0                   0                   0
Ti           5.235461000         1.670800000         1.437018000                   0                   0                   0
Ti           3.627068000         4.154804000         1.959934000                   0                   0                   0
O           13.172705000         5.285519000         2.769997000                   0                   0                   0
O           12.052941000         1.637259000         2.770037000                   0                   0                   0
O            9.836152000        -0.011092000         1.808228000                   0                   0                   0
O            7.788996000         4.180140000         0.624982000                   0                   0                   0
O           10.011210000         5.840730000         1.585472000                   0                   0                   0
O           10.956264000         3.636807000         1.809873000                   0                   0                   0
O            8.891843000         2.191846000         1.587782000                   0                   0                   0
O            6.669734000         0.532342000         0.624347000                   0                   0                   0
Ti           7.997167000         0.506791000         1.959583000                   0                   0                   0
Ti          11.844758000         5.318269000         1.436834000                   0                   0                   0
Ti          10.724261000         1.670800000         1.437018000                   0                   0                   0
Ti           9.115868000         4.154804000         1.959934000                   0                   0                   0
O            9.923512280        12.581830570         2.769997000                   0                   0                   0
O            8.803748280         8.933570570         2.770037000                   0                   0                   0
O            6.586959280         7.285219570         1.808228000                   0                   0                   0
O            4.539803280        11.476451570         0.624982000                   0                   0                   0
O            6.762017280        13.137041570         1.585472000                   0                   0                   0
O            7.707071280        10.933118570         1.809873000                   0                   0                   0
O            5.642650280         9.488157570         1.587782000                   0                   0                   0
O            3.420541280         7.828653570         0.624347000                   0                   0                   0
Ti           4.747974280         7.803102570         1.959583000                   0                   0                   0
Ti           8.595565280        12.614580570         1.436834000                   0                   0                   0
Ti           7.475068280         8.967111570         1.437018000                   0                   0                   0
Ti           5.866675280        11.451115570         1.959934000                   0                   0                   0
O           15.412312280        12.581830570         2.769997000                   0                   0                   0
O           14.292548280         8.933570570         2.770037000                   0                   0                   0
O           12.075759280         7.285219570         1.808228000                   0                   0                   0
O           10.028603280        11.476451570         0.624982000                   0                   0                   0
O           12.250817280        13.137041570         1.585472000                   0                   0                   0
O           13.195871280        10.933118570         1.809873000                   0                   0                   0
O           11.131450280         9.488157570         1.587782000                   0                   0                   0
O            8.909341280         7.828653570         0.624347000                   0                   0                   0
Ti          10.236774280         7.803102570         1.959583000                   0                   0                   0
Ti          14.084365280        12.614580570         1.436834000                   0                   0                   0
Ti          12.963868280         8.967111570         1.437018000                   0                   0                   0
Ti          11.355475280        11.451115570         1.959934000                   0                   0                   0
O            8.968633770         4.773930900         5.918176130                   0                   0                   0
O            7.848869770         1.125670900         5.918216130                   0                   0                   0
O            5.632080770        -0.522680100         4.956407130                   0                   0                   0
O            3.584924770         3.668551900         3.773161130                   0                   0                   0
O            5.807138770         5.329141900         4.733651130                   0                   0                   0
O            6.752192770         3.125218900         4.958052130                   0                   0                   0
O            4.687771770         1.680257900         4.735961130                   0                   0                   0
O            2.465662770         0.020753900         3.772526130                   0                   0                   0
Ti           3.793095770        -0.004797100         5.107762130                   0                   0                   0
Ti           7.640686770         4.806680900         4.585013130                   0                   0                   0
Ti           6.520189770         1.159211900         4.585197130                   0                   0                   0
Ti           4.911796770         3.643215900         5.108113130                   0                   0                   0
O           14.457433770         4.773930900         5.918176130                   0                   0                   0
O           13.337669770         1.125670900         5.918216130                   0                   0                   0
O           11.120880770        -0.522680100         4.956407130                   0                   0                   0
O            9.073724770         3.668551900         3.773161130                   0                   0                   0
O           11.295938770         5.329141900         4.733651130                   0                   0                   0
O           12.240992770         3.125218900         4.958052130                   0                   0                   0
O           10.176571770         1.680257900         4.735961130                   0                   0                   0
O            7.954462770         0.020753900         3.772526130                   0                   0                   0
Ti           9.281895770        -0.004797100         5.107762130                   0                   0                   0
Ti          13.129486770         4.806680900         4.585013130                   0                   0                   0
Ti          12.008989770         1.159211900         4.585197130                   0                   0                   0
Ti          10.400596770         3.643215900         5.108113130                   0                   0                   0
O           11.208241050        12.070242470         5.918176130                   0                   0                   0
O           10.088477050         8.421982470         5.918216130                   0                   0                   0
O            7.871688050         6.773631470         4.956407130                   0                   0                   0
O            5.824532050        10.964863470         3.773161130                   0                   0                   0
O            8.046746050        12.625453470         4.733651130                   0                   0                   0
O            8.991800050        10.421530470         4.958052130                   0                   0                   0
O            6.927379050         8.976569470         4.735961130                   0                   0                   0
O            4.705270050         7.317065470         3.772526130                   0                   0                   0
Ti           6.032703050         7.291514470         5.107762130                   0                   0                   0
Ti           9.880294050        12.102992470         4.585013130                   0                   0                   0
Ti           8.759797050         8.455523470         4.585197130                   0                   0                   0
Ti           7.151404050        10.939527470         5.108113130                   0                   0                   0
O           16.697041050        12.070242470         5.918176130                   0                   0                   0
O           15.577277050         8.421982470         5.918216130                   0                   0                   0
O           13.360488050         6.773631470         4.956407130                   0                   0                   0
O           11.313332050        10.964863470         3.773161130                   0                   0                   0
O           13.535546050        12.625453470         4.733651130                   0                   0                   0
O           14.480600050        10.421530470         4.958052130                   0                   0                   0
O           12.416179050         8.976569470         4.735961130                   0                   0                   0
O           10.194070050         7.317065470         3.772526130                   0                   0                   0
Ti          11.521503050         7.291514470         5.107762130                   0                   0                   0
Ti          15.369094050        12.102992470         4.585013130                   0                   0                   0
Ti          14.248597050         8.455523470         4.585197130                   0                   0                   0
Ti          12.640204050        10.939527470         5.108113130                   0                   0                   0
O           18.661505000         5.285519000         2.769997000                   0                   0                   0
O           17.541741000         1.637259000         2.770037000                   0                   0                   0
O           15.324952000        -0.011092000         1.808228000                   0                   0                   0
O           13.277796000         4.180140000         0.624982000                   0                   0                   0
O           15.500010000         5.840730000         1.585472000                   0                   0                   0
O           16.445064000         3.636807000         1.809873000                   0                   0                   0
O           14.380643000         2.191846000         1.587782000                   0                   0                   0
O           12.158534000         0.532342000         0.624347000                   0                   0                   0
Ti          13.485967000         0.506791000         1.959583000                   0                   0                   0
Ti          17.333558000         5.318269000         1.436834000                   0                   0                   0
Ti          16.213061000         1.670800000         1.437018000                   0                   0                   0
Ti          14.604668000         4.154804000         1.959934000                   0                   0                   0
O           24.150305000         5.285519000         2.769997000                   0                   0                   0
O           23.030541000         1.637259000         2.770037000                   0                   0                   0
O           20.813752000        -0.011092000         1.808228000                   0                   0                   0
O           18.766596000         4.180140000         0.624982000                   0                   0                   0
O           20.988810000         5.840730000         1.585472000                   0                   0                   0
O           21.933864000         3.636807000         1.809873000                   0                   0                   0
O           19.869443000         2.191846000         1.587782000                   0                   0                   0
O           17.647334000         0.532342000         0.624347000                   0                   0                   0
Ti          18.974767000         0.506791000         1.959583000                   0                   0                   0
Ti          22.822358000         5.318269000         1.436834000                   0                   0                   0
Ti          21.701861000         1.670800000         1.437018000                   0                   0                   0
Ti          20.093468000         4.154804000         1.959934000                   0                   0                   0
O           20.901112280        12.581830570         2.769997000                   0                   0                   0
O           19.781348280         8.933570570         2.770037000                   0                   0                   0
O           17.564559280         7.285219570         1.808228000                   0                   0                   0
O           15.517403280        11.476451570         0.624982000                   0                   0                   0
O           17.739617280        13.137041570         1.585472000                   0                   0                   0
O           18.684671280        10.933118570         1.809873000                   0                   0                   0
O           16.620250280         9.488157570         1.587782000                   0                   0                   0
O           14.398141280         7.828653570         0.624347000                   0                   0                   0
Ti          15.725574280         7.803102570         1.959583000                   0                   0                   0
Ti          19.573165280        12.614580570         1.436834000                   0                   0                   0
Ti          18.452668280         8.967111570         1.437018000                   0                   0                   0
Ti          16.844275280        11.451115570         1.959934000                   0                   0                   0
O           26.389912280        12.581830570         2.769997000                   0                   0                   0
O           25.270148280         8.933570570         2.770037000                   0                   0                   0
O           23.053359280         7.285219570         1.808228000                   0                   0                   0
O           21.006203280        11.476451570         0.624982000                   0                   0                   0
O           23.228417280        13.137041570         1.585472000                   0                   0                   0
O           24.173471280        10.933118570         1.809873000                   0                   0                   0
O           22.109050280         9.488157570         1.587782000                   0                   0                   0
O           19.886941280         7.828653570         0.624347000                   0                   0                   0
Ti          21.214374280         7.803102570         1.959583000                   0                   0                   0
Ti          25.061965280        12.614580570         1.436834000                   0                   0                   0
Ti          23.941468280         8.967111570         1.437018000                   0                   0                   0
Ti          22.333075280        11.451115570         1.959934000                   0                   0                   0
O           19.946233770         4.773930900         5.918176130                   0                   0                   0
O           18.826469770         1.125670900         5.918216130                   0                   0                   0
O           16.609680770        -0.522680100         4.956407130                   0                   0                   0
O           14.562524770         3.668551900         3.773161130                   0                   0                   0
O           16.784738770         5.329141900         4.733651130                   0                   0                   0
O           17.729792770         3.125218900         4.958052130                   0                   0                   0
O           15.665371770         1.680257900         4.735961130                   0                   0                   0
O           13.443262770         0.020753900         3.772526130                   0                   0                   0
Ti          14.770695770        -0.004797100         5.107762130                   0                   0                   0
Ti          18.618286770         4.806680900         4.585013130                   0                   0                   0
Ti          17.497789770         1.159211900         4.585197130                   0                   0                   0
Ti          15.889396770         3.643215900         5.108113130                   0                   0                   0
O           25.435033770         4.773930900         5.918176130                   0                   0                   0
O           24.315269770         1.125670900         5.918216130                   0                   0                   0
O           22.098480770        -0.522680100         4.956407130                   0                   0                   0
O           20.051324770         3.668551900         3.773161130                   0                   0                   0
O           22.273538770         5.329141900         4.733651130                   0                   0                   0
O           23.218592770         3.125218900         4.958052130                   0                   0                   0
O           21.154171770         1.680257900         4.735961130                   0                   0                   0
O           18.932062770         0.020753900         3.772526130                   0                   0                   0
Ti          20.259495770        -0.004797100         5.107762130                   0                   0                   0
Ti          24.107086770         4.806680900         4.585013130                   0                   0                   0
Ti          22.986589770         1.159211900         4.585197130                   0                   0                   0
Ti          21.378196770         3.643215900         5.108113130                   0                   0                   0
O           22.185841050        12.070242470         5.918176130                   0                   0                   0
O           21.066077050         8.421982470         5.918216130                   0                   0                   0
O           18.849288050         6.773631470         4.956407130                   0                   0                   0
O           16.802132050        10.964863470         3.773161130                   0                   0                   0
O           19.024346050        12.625453470         4.733651130                   0                   0                   0
O           19.969400050        10.421530470         4.958052130                   0                   0                   0
O           17.904979050         8.976569470         4.735961130                   0                   0                   0
O           15.682870050         7.317065470         3.772526130                   0                   0                   0
Ti          17.010303050         7.291514470         5.107762130                   0                   0                   0
Ti          20.857894050        12.102992470         4.585013130                   0                   0                   0
Ti          19.737397050         8.455523470         4.585197130                   0                   0                   0
Ti          18.129004050        10.939527470         5.108113130                   0                   0                   0
O           27.674641050        12.070242470         5.918176130                   0                   0                   0
O           26.554877050         8.421982470         5.918216130                   0                   0                   0
O           24.338088050         6.773631470         4.956407130                   0                   0                   0
O           22.290932050        10.964863470         3.773161130                   0                   0                   0
O           24.513146050        12.625453470         4.733651130                   0                   0                   0
O           25.458200050        10.421530470         4.958052130                   0                   0                   0
O           23.393779050         8.976569470         4.735961130                   0                   0                   0
O           21.171670050         7.317065470         3.772526130                   0                   0                   0
Ti          22.499103050         7.291514470         5.107762130                   0                   0                   0
Ti          26.346694050        12.102992470         4.585013130                   0                   0                   0
Ti          25.226197050         8.455523470         4.585197130                   0                   0                   0
Ti          23.617804050        10.939527470         5.108113130                   0                   0                   0
